<?xml version="1.0" encoding="UTF-8"?>

<!-- generated on 2022-04-17 20:29:57 by Eclipse SUMO GUI Version 1.10.0
<configuration xmlns:xsi="http://www.w3.org/2001/XMLSchema-instance" xsi:noNamespaceSchemaLocation="http://sumo.dlr.de/xsd/sumoConfiguration.xsd">

    <input>
        <net-file value="./final.net.xml"/>
        <route-files value="./less.rou.xml"/>
    </input>

    <output>
        <write-license value="true"/>
        <tripinfo-output value="./tripinfos.txt"/>
    </output>

    <time>
        <begin value="0"/>
        <end value="100000"/>
        <step-length value="0.1"/>
    </time>

    <processing>
        <default.speeddev value="100"/>
        <pedestrian.model value="nonInteracting"/>
    </processing>

    <report>
        <duration-log.disable value="true"/>
        <no-step-log value="true"/>
    </report>

    <traci_server>
        <remote-port value="8813"/>
    </traci_server>

    <mesoscopic>
        <mesosim value="true"/>
    </mesoscopic>

    <gui_only>
        <quit-on-end value="true"/>
        <start value="true"/>
        <tracker-interval value="0.1"/>
    </gui_only>

</configuration>
-->

<tripinfos xmlns:xsi="http://www.w3.org/2001/XMLSchema-instance" xsi:noNamespaceSchemaLocation="http://sumo.dlr.de/xsd/tripinfo_file.xsd">
    <tripinfo id="vehicle_75" depart="8.60" departLane="" departPos="0.00" departSpeed="46.64" departDelay="1.10" arrival="61.40" arrivalLane="" arrivalPos="117.05" arrivalSpeed="59.99" duration="52.80" routeLength="2751.70" waitingTime="0.00" waitingCount="0" stopTime="0.00" timeLoss="6.92" rerouteNo="1" devices="tripinfo_vehicle_75 routing_vehicle_75" vType="passenger" speedFactor="0.86" vaporized=""/>
    <tripinfo id="vehicle_67" depart="11.10" departLane="" departPos="0.00" departSpeed="56.01" departDelay="4.40" arrival="65.60" arrivalLane="" arrivalPos="117.05" arrivalSpeed="56.00" duration="54.50" routeLength="2751.70" waitingTime="0.00" waitingCount="0" stopTime="0.00" timeLoss="5.31" rerouteNo="1" devices="tripinfo_vehicle_67 routing_vehicle_67" vType="lorry" speedFactor="1.18" vaporized=""/>
    <tripinfo id="vehicle_21" depart="2.10" departLane="" departPos="0.00" departSpeed="70.01" departDelay="0.00" arrival="69.40" arrivalLane="" arrivalPos="125.17" arrivalSpeed="70.01" duration="67.30" routeLength="4705.82" waitingTime="0.00" waitingCount="0" stopTime="0.00" timeLoss="-0.00" rerouteNo="1" devices="tripinfo_vehicle_21 routing_vehicle_21" vType="passenger" speedFactor="1.30" vaporized=""/>
    <tripinfo id="vehicle_104" depart="13.60" departLane="" departPos="0.00" departSpeed="38.41" departDelay="3.20" arrival="110.20" arrivalLane="" arrivalPos="124.50" arrivalSpeed="48.07" duration="96.60" routeLength="2792.03" waitingTime="0.00" waitingCount="0" stopTime="0.00" timeLoss="35.29" rerouteNo="1" devices="tripinfo_vehicle_104 routing_vehicle_104" vType="passenger" speedFactor="0.69" vaporized=""/>
    <tripinfo id="vehicle_120" depart="12.00" departLane="" departPos="0.00" departSpeed="70.01" departDelay="0.00" arrival="116.70" arrivalLane="" arrivalPos="124.84" arrivalSpeed="70.02" duration="104.70" routeLength="3246.30" waitingTime="0.00" waitingCount="0" stopTime="0.00" timeLoss="58.24" rerouteNo="1" devices="tripinfo_vehicle_120 routing_vehicle_120" vType="passenger" speedFactor="1.46" vaporized=""/>
    <tripinfo id="vehicle_145" depart="16.10" departLane="" departPos="0.00" departSpeed="24.46" departDelay="1.60" arrival="118.10" arrivalLane="" arrivalPos="124.84" arrivalSpeed="70.02" duration="102.00" routeLength="3246.30" waitingTime="0.00" waitingCount="0" stopTime="0.00" timeLoss="55.52" rerouteNo="1" devices="tripinfo_vehicle_145 routing_vehicle_145" vType="passenger" speedFactor="1.74" vaporized=""/>
    <tripinfo id="vehicle_148" depart="19.50" departLane="" departPos="0.00" departSpeed="46.13" departDelay="4.70" arrival="120.90" arrivalLane="" arrivalPos="124.84" arrivalSpeed="70.02" duration="101.40" routeLength="3246.30" waitingTime="0.62" waitingCount="0" stopTime="0.00" timeLoss="55.00" rerouteNo="1" devices="tripinfo_vehicle_148 routing_vehicle_148" vType="passenger" speedFactor="1.64" vaporized=""/>
    <tripinfo id="vehicle_304" depart="31.20" departLane="" departPos="0.00" departSpeed="44.60" departDelay="0.80" arrival="125.80" arrivalLane="" arrivalPos="125.31" arrivalSpeed="49.01" duration="94.60" routeLength="4543.48" waitingTime="0.00" waitingCount="0" stopTime="0.00" timeLoss="0.22" rerouteNo="1" devices="tripinfo_vehicle_304 routing_vehicle_304" vType="passenger" speedFactor="0.70" vaporized=""/>
    <tripinfo id="vehicle_108" depart="13.40" departLane="" departPos="0.00" departSpeed="39.26" departDelay="2.60" arrival="131.20" arrivalLane="" arrivalPos="63.24" arrivalSpeed="67.85" duration="117.80" routeLength="7386.02" waitingTime="0.06" waitingCount="0" stopTime="0.00" timeLoss="6.56" rerouteNo="1" devices="tripinfo_vehicle_108 routing_vehicle_108" vType="passenger" speedFactor="0.97" vaporized=""/>
    <tripinfo id="vehicle_261" depart="27.00" departLane="" departPos="0.00" departSpeed="46.55" departDelay="0.90" arrival="142.80" arrivalLane="" arrivalPos="124.84" arrivalSpeed="70.02" duration="115.80" routeLength="3246.30" waitingTime="0.00" waitingCount="0" stopTime="0.00" timeLoss="69.32" rerouteNo="1" devices="tripinfo_vehicle_261 routing_vehicle_261" vType="passenger" speedFactor="1.02" vaporized=""/>
    <tripinfo id="vehicle_279" depart="33.30" departLane="" departPos="0.00" departSpeed="46.45" departDelay="5.40" arrival="146.40" arrivalLane="" arrivalPos="124.84" arrivalSpeed="59.22" duration="113.10" routeLength="3246.30" waitingTime="0.00" waitingCount="0" stopTime="0.00" timeLoss="58.24" rerouteNo="1" devices="tripinfo_vehicle_279 routing_vehicle_279" vType="passenger" speedFactor="0.85" vaporized=""/>
    <tripinfo id="vehicle_26" depart="2.60" departLane="" departPos="0.00" departSpeed="18.90" departDelay="0.00" arrival="148.20" arrivalLane="" arrivalPos="117.05" arrivalSpeed="18.90" duration="145.60" routeLength="2751.70" waitingTime="0.00" waitingCount="0" stopTime="0.00" timeLoss="0.00" rerouteNo="1" devices="tripinfo_vehicle_26 routing_vehicle_26" vType="passenger" speedFactor="0.27" vaporized=""/>
    <tripinfo id="vehicle_66" depart="8.10" departLane="" departPos="0.00" departSpeed="69.98" departDelay="1.50" arrival="150.40" arrivalLane="" arrivalPos="106.39" arrivalSpeed="69.99" duration="142.30" routeLength="8130.25" waitingTime="0.00" waitingCount="0" stopTime="0.00" timeLoss="26.09" rerouteNo="1" devices="tripinfo_vehicle_66 routing_vehicle_66" vType="passenger" speedFactor="1.99" vaporized=""/>
    <tripinfo id="vehicle_319" depart="37.30" departLane="" departPos="0.00" departSpeed="40.42" departDelay="5.40" arrival="158.70" arrivalLane="" arrivalPos="129.13" arrivalSpeed="40.42" duration="121.40" routeLength="3176.31" waitingTime="0.19" waitingCount="0" stopTime="0.00" timeLoss="42.79" rerouteNo="1" devices="tripinfo_vehicle_319 routing_vehicle_319" vType="passenger" speedFactor="0.58" vaporized=""/>
    <tripinfo id="vehicle_434" depart="43.40" departLane="" departPos="0.00" departSpeed="26.52" departDelay="0.00" arrival="165.60" arrivalLane="" arrivalPos="124.50" arrivalSpeed="26.52" duration="122.20" routeLength="2792.03" waitingTime="0.00" waitingCount="0" stopTime="0.00" timeLoss="11.03" rerouteNo="1" devices="tripinfo_vehicle_434 routing_vehicle_434" vType="passenger" speedFactor="0.38" vaporized=""/>
    <tripinfo id="vehicle_503" depart="50.30" departLane="" departPos="0.00" departSpeed="70.01" departDelay="0.00" arrival="166.80" arrivalLane="" arrivalPos="124.50" arrivalSpeed="33.76" duration="116.50" routeLength="2792.03" waitingTime="0.47" waitingCount="0" stopTime="0.00" timeLoss="76.55" rerouteNo="1" devices="tripinfo_vehicle_503 routing_vehicle_503" vType="passenger" speedFactor="1.98" vaporized=""/>
    <tripinfo id="vehicle_254" depart="40.80" departLane="" departPos="0.00" departSpeed="55.99" departDelay="15.40" arrival="170.10" arrivalLane="" arrivalPos="124.84" arrivalSpeed="56.01" duration="129.30" routeLength="3246.30" waitingTime="0.00" waitingCount="0" stopTime="0.00" timeLoss="71.24" rerouteNo="1" devices="tripinfo_vehicle_254 routing_vehicle_254" vType="lorry" speedFactor="1.52" vaporized=""/>
    <tripinfo id="vehicle_50" depart="5.80" departLane="" departPos="0.00" departSpeed="56.00" departDelay="0.80" arrival="177.40" arrivalLane="" arrivalPos="124.90" arrivalSpeed="56.01" duration="171.60" routeLength="9581.91" waitingTime="0.00" waitingCount="0" stopTime="0.00" timeLoss="0.00" rerouteNo="1" devices="tripinfo_vehicle_50 routing_vehicle_50" vType="lorry" speedFactor="1.01" vaporized=""/>
    <tripinfo id="vehicle_24" depart="3.70" departLane="" departPos="0.00" departSpeed="68.48" departDelay="1.30" arrival="178.40" arrivalLane="" arrivalPos="125.57" arrivalSpeed="69.99" duration="174.70" routeLength="11969.04" waitingTime="0.00" waitingCount="0" stopTime="0.00" timeLoss="3.60" rerouteNo="1" devices="tripinfo_vehicle_24 routing_vehicle_24" vType="passenger" speedFactor="1.84" vaporized=""/>
    <tripinfo id="vehicle_795" depart="79.50" departLane="" departPos="0.00" departSpeed="70.01" departDelay="0.00" arrival="181.40" arrivalLane="" arrivalPos="124.84" arrivalSpeed="70.02" duration="101.90" routeLength="3246.30" waitingTime="0.00" waitingCount="0" stopTime="0.00" timeLoss="55.42" rerouteNo="1" devices="tripinfo_vehicle_795 routing_vehicle_795" vType="motorcycle" speedFactor="1.85" vaporized=""/>
    <tripinfo id="vehicle_727" depart="79.20" departLane="" departPos="0.00" departSpeed="42.53" departDelay="6.50" arrival="188.10" arrivalLane="" arrivalPos="124.50" arrivalSpeed="69.79" duration="108.90" routeLength="2792.03" waitingTime="0.00" waitingCount="0" stopTime="0.00" timeLoss="66.59" rerouteNo="1" devices="tripinfo_vehicle_727 routing_vehicle_727" vType="passenger" speedFactor="1.00" vaporized=""/>
    <tripinfo id="vehicle_37" depart="3.70" departLane="" departPos="0.00" departSpeed="20.58" departDelay="0.00" arrival="188.50" arrivalLane="" arrivalPos="124.84" arrivalSpeed="70.02" duration="184.80" routeLength="7388.68" waitingTime="0.53" waitingCount="0" stopTime="0.00" timeLoss="75.33" rerouteNo="1" devices="tripinfo_vehicle_37 routing_vehicle_37" vType="passenger" speedFactor="1.50" vaporized=""/>
    <tripinfo id="vehicle_910" depart="92.30" departLane="" departPos="0.00" departSpeed="42.59" departDelay="1.30" arrival="191.40" arrivalLane="" arrivalPos="124.50" arrivalSpeed="69.98" duration="99.10" routeLength="2792.03" waitingTime="0.00" waitingCount="0" stopTime="0.00" timeLoss="59.13" rerouteNo="1" devices="tripinfo_vehicle_910 routing_vehicle_910" vType="passenger" speedFactor="1.76" vaporized=""/>
    <tripinfo id="vehicle_606" depart="67.60" departLane="" departPos="0.00" departSpeed="24.44" departDelay="7.00" arrival="198.10" arrivalLane="" arrivalPos="117.05" arrivalSpeed="24.44" duration="130.50" routeLength="2751.70" waitingTime="0.00" waitingCount="0" stopTime="0.00" timeLoss="17.91" rerouteNo="1" devices="tripinfo_vehicle_606 routing_vehicle_606" vType="passenger" speedFactor="0.35" vaporized=""/>
    <tripinfo id="vehicle_71" depart="9.00" departLane="" departPos="0.00" departSpeed="23.91" departDelay="1.90" arrival="208.90" arrivalLane="" arrivalPos="123.26" arrivalSpeed="23.91" duration="199.90" routeLength="4799.47" waitingTime="0.27" waitingCount="0" stopTime="0.00" timeLoss="-3.64" rerouteNo="1" devices="tripinfo_vehicle_71 routing_vehicle_71" vType="lorry" speedFactor="0.34" vaporized=""/>
    <tripinfo id="vehicle_265" depart="30.00" departLane="" departPos="0.00" departSpeed="45.01" departDelay="3.50" arrival="210.20" arrivalLane="" arrivalPos="123.26" arrivalSpeed="47.54" duration="180.20" routeLength="4799.47" waitingTime="0.00" waitingCount="0" stopTime="0.00" timeLoss="110.90" rerouteNo="1" devices="tripinfo_vehicle_265 routing_vehicle_265" vType="passenger" speedFactor="1.44" vaporized=""/>
    <tripinfo id="vehicle_977" depart="101.60" departLane="" departPos="0.00" departSpeed="44.30" departDelay="3.90" arrival="220.00" arrivalLane="" arrivalPos="124.84" arrivalSpeed="44.30" duration="118.40" routeLength="3246.30" waitingTime="0.00" waitingCount="0" stopTime="0.00" timeLoss="45.09" rerouteNo="1" devices="tripinfo_vehicle_977 routing_vehicle_977" vType="passenger" speedFactor="0.63" vaporized=""/>
    <tripinfo id="vehicle_128" depart="13.40" departLane="" departPos="0.00" departSpeed="44.39" departDelay="0.60" arrival="227.10" arrivalLane="" arrivalPos="117.05" arrivalSpeed="60.84" duration="213.70" routeLength="6729.36" waitingTime="0.00" waitingCount="0" stopTime="0.00" timeLoss="103.42" rerouteNo="1" devices="tripinfo_vehicle_128 routing_vehicle_128" vType="passenger" speedFactor="0.87" vaporized=""/>
    <tripinfo id="vehicle_177" depart="20.70" departLane="" departPos="0.00" departSpeed="47.51" departDelay="3.00" arrival="228.00" arrivalLane="" arrivalPos="49.96" arrivalSpeed="69.97" duration="207.30" routeLength="4568.88" waitingTime="0.10" waitingCount="0" stopTime="0.00" timeLoss="141.94" rerouteNo="1" devices="tripinfo_vehicle_177 routing_vehicle_177" vType="passenger" speedFactor="1.38" vaporized=""/>
    <tripinfo id="vehicle_141" depart="15.90" departLane="" departPos="0.00" departSpeed="44.87" departDelay="1.80" arrival="228.30" arrivalLane="" arrivalPos="117.05" arrivalSpeed="61.51" duration="212.40" routeLength="6729.36" waitingTime="0.31" waitingCount="0" stopTime="0.00" timeLoss="116.01" rerouteNo="1" devices="tripinfo_vehicle_141 routing_vehicle_141" vType="passenger" speedFactor="1.21" vaporized=""/>
    <tripinfo id="vehicle_197" depart="24.40" departLane="" departPos="0.00" departSpeed="28.45" departDelay="4.70" arrival="233.70" arrivalLane="" arrivalPos="49.96" arrivalSpeed="28.45" duration="209.30" routeLength="4568.88" waitingTime="0.02" waitingCount="0" stopTime="0.00" timeLoss="48.62" rerouteNo="1" devices="tripinfo_vehicle_197 routing_vehicle_197" vType="passenger" speedFactor="0.41" vaporized=""/>
    <tripinfo id="vehicle_770" depart="77.90" departLane="" departPos="0.00" departSpeed="55.98" departDelay="0.90" arrival="233.90" arrivalLane="" arrivalPos="129.13" arrivalSpeed="56.00" duration="156.00" routeLength="3176.31" waitingTime="0.00" waitingCount="0" stopTime="0.00" timeLoss="99.18" rerouteNo="1" devices="tripinfo_vehicle_770 routing_vehicle_770" vType="lorry" speedFactor="1.10" vaporized=""/>
    <tripinfo id="vehicle_274" depart="30.90" departLane="" departPos="0.00" departSpeed="46.31" departDelay="3.50" arrival="235.00" arrivalLane="" arrivalPos="49.96" arrivalSpeed="28.45" duration="204.10" routeLength="4568.88" waitingTime="0.62" waitingCount="0" stopTime="0.00" timeLoss="138.72" rerouteNo="1" devices="tripinfo_vehicle_274 routing_vehicle_274" vType="passenger" speedFactor="1.88" vaporized=""/>
    <tripinfo id="vehicle_5" depart="4.30" departLane="" departPos="0.00" departSpeed="69.91" departDelay="3.80" arrival="236.20" arrivalLane="" arrivalPos="49.96" arrivalSpeed="28.45" duration="231.90" routeLength="7182.00" waitingTime="0.00" waitingCount="0" stopTime="0.00" timeLoss="129.23" rerouteNo="1" devices="tripinfo_vehicle_5 routing_vehicle_5" vType="passenger" speedFactor="1.53" vaporized=""/>
    <tripinfo id="vehicle_551" depart="55.10" departLane="" departPos="0.00" departSpeed="59.33" departDelay="0.00" arrival="238.80" arrivalLane="" arrivalPos="49.96" arrivalSpeed="59.33" duration="183.70" routeLength="4568.88" waitingTime="0.00" waitingCount="0" stopTime="0.00" timeLoss="106.62" rerouteNo="1" devices="tripinfo_vehicle_551 routing_vehicle_551" vType="passenger" speedFactor="0.85" vaporized=""/>
    <tripinfo id="vehicle_619" depart="61.90" departLane="" departPos="0.00" departSpeed="58.03" departDelay="0.00" arrival="240.60" arrivalLane="" arrivalPos="49.96" arrivalSpeed="69.97" duration="178.70" routeLength="4568.88" waitingTime="0.00" waitingCount="0" stopTime="0.00" timeLoss="113.34" rerouteNo="1" devices="tripinfo_vehicle_619 routing_vehicle_619" vType="passenger" speedFactor="1.56" vaporized=""/>
    <tripinfo id="vehicle_584" depart="58.40" departLane="" departPos="0.00" departSpeed="52.69" departDelay="0.00" arrival="241.80" arrivalLane="" arrivalPos="49.96" arrivalSpeed="69.97" duration="183.40" routeLength="4568.88" waitingTime="2.10" waitingCount="0" stopTime="0.00" timeLoss="118.07" rerouteNo="1" devices="tripinfo_vehicle_584 routing_vehicle_584" vType="passenger" speedFactor="1.09" vaporized=""/>
    <tripinfo id="vehicle_704" depart="85.20" departLane="" departPos="0.00" departSpeed="19.23" departDelay="14.80" arrival="243.60" arrivalLane="" arrivalPos="117.05" arrivalSpeed="19.23" duration="158.40" routeLength="2751.70" waitingTime="0.00" waitingCount="0" stopTime="0.00" timeLoss="13.30" rerouteNo="1" devices="tripinfo_vehicle_704 routing_vehicle_704" vType="lorry" speedFactor="0.27" vaporized=""/>
    <tripinfo id="vehicle_263" depart="26.30" departLane="" departPos="0.00" departSpeed="69.99" departDelay="0.00" arrival="244.90" arrivalLane="" arrivalPos="117.05" arrivalSpeed="19.23" duration="218.60" routeLength="6729.36" waitingTime="0.33" waitingCount="0" stopTime="0.00" timeLoss="122.41" rerouteNo="1" devices="tripinfo_vehicle_263 routing_vehicle_263" vType="passenger" speedFactor="1.91" vaporized=""/>
    <tripinfo id="vehicle_739" depart="73.90" departLane="" departPos="0.00" departSpeed="17.54" departDelay="0.00" arrival="245.50" arrivalLane="" arrivalPos="49.96" arrivalSpeed="45.09" duration="171.60" routeLength="4568.88" waitingTime="0.00" waitingCount="0" stopTime="0.00" timeLoss="70.23" rerouteNo="1" devices="tripinfo_vehicle_739 routing_vehicle_739" vType="passenger" speedFactor="0.64" vaporized=""/>
    <tripinfo id="vehicle_117" depart="12.20" departLane="" departPos="0.00" departSpeed="45.08" departDelay="0.50" arrival="246.10" arrivalLane="" arrivalPos="117.05" arrivalSpeed="19.22" duration="233.90" routeLength="6729.36" waitingTime="5.24" waitingCount="0" stopTime="0.00" timeLoss="103.01" rerouteNo="1" devices="tripinfo_vehicle_117 routing_vehicle_117" vType="passenger" speedFactor="0.73" vaporized=""/>
    <tripinfo id="vehicle_633" depart="63.30" departLane="" departPos="0.00" departSpeed="63.26" departDelay="0.00" arrival="246.30" arrivalLane="" arrivalPos="49.96" arrivalSpeed="69.97" duration="183.00" routeLength="4568.88" waitingTime="3.27" waitingCount="0" stopTime="0.00" timeLoss="117.68" rerouteNo="1" devices="tripinfo_vehicle_633 routing_vehicle_633" vType="passenger" speedFactor="1.87" vaporized=""/>
    <tripinfo id="vehicle_38" depart="3.80" departLane="" departPos="0.00" departSpeed="48.06" departDelay="0.00" arrival="247.20" arrivalLane="" arrivalPos="61.88" arrivalSpeed="48.04" duration="243.40" routeLength="11739.10" waitingTime="0.00" waitingCount="0" stopTime="0.00" timeLoss="0.00" rerouteNo="1" devices="tripinfo_vehicle_38 routing_vehicle_38" vType="passenger" speedFactor="0.69" vaporized=""/>
    <tripinfo id="vehicle_824" depart="91.10" departLane="" departPos="0.00" departSpeed="56.01" departDelay="8.70" arrival="247.40" arrivalLane="" arrivalPos="117.05" arrivalSpeed="21.75" duration="156.30" routeLength="2751.70" waitingTime="0.00" waitingCount="0" stopTime="0.00" timeLoss="107.09" rerouteNo="1" devices="tripinfo_vehicle_824 routing_vehicle_824" vType="lorry" speedFactor="1.86" vaporized=""/>
    <tripinfo id="vehicle_199" depart="20.90" departLane="" departPos="0.00" departSpeed="25.74" departDelay="1.00" arrival="257.10" arrivalLane="" arrivalPos="54.13" arrivalSpeed="70.03" duration="236.20" routeLength="4684.94" waitingTime="0.00" waitingCount="0" stopTime="0.00" timeLoss="169.22" rerouteNo="1" devices="tripinfo_vehicle_199 routing_vehicle_199" vType="passenger" speedFactor="1.42" vaporized=""/>
    <tripinfo id="vehicle_546" depart="58.90" departLane="" departPos="0.00" departSpeed="40.61" departDelay="4.30" arrival="266.80" arrivalLane="" arrivalPos="54.13" arrivalSpeed="55.98" duration="207.90" routeLength="4684.94" waitingTime="0.00" waitingCount="0" stopTime="0.00" timeLoss="124.20" rerouteNo="1" devices="tripinfo_vehicle_546 routing_vehicle_546" vType="lorry" speedFactor="1.59" vaporized=""/>
    <tripinfo id="vehicle_80" depart="9.50" departLane="" departPos="0.00" departSpeed="55.98" departDelay="1.50" arrival="273.40" arrivalLane="" arrivalPos="125.19" arrivalSpeed="55.99" duration="263.90" routeLength="7626.24" waitingTime="0.00" waitingCount="0" stopTime="0.00" timeLoss="127.74" rerouteNo="1" devices="tripinfo_vehicle_80 routing_vehicle_80" vType="lorry" speedFactor="1.73" vaporized=""/>
    <tripinfo id="vehicle_92" depart="11.40" departLane="" departPos="0.00" departSpeed="55.98" departDelay="2.20" arrival="276.20" arrivalLane="" arrivalPos="125.19" arrivalSpeed="55.99" duration="264.80" routeLength="7626.24" waitingTime="0.61" waitingCount="0" stopTime="0.00" timeLoss="128.58" rerouteNo="1" devices="tripinfo_vehicle_92 routing_vehicle_92" vType="lorry" speedFactor="1.64" vaporized=""/>
    <tripinfo id="vehicle_959" depart="97.20" departLane="" departPos="0.00" departSpeed="18.33" departDelay="1.30" arrival="278.40" arrivalLane="" arrivalPos="129.13" arrivalSpeed="18.33" duration="181.20" routeLength="3176.31" waitingTime="0.00" waitingCount="0" stopTime="0.00" timeLoss="7.83" rerouteNo="1" devices="tripinfo_vehicle_959 routing_vehicle_959" vType="lorry" speedFactor="0.26" vaporized=""/>
    <tripinfo id="vehicle_109" depart="10.90" departLane="" departPos="0.00" departSpeed="69.98" departDelay="0.00" arrival="279.60" arrivalLane="" arrivalPos="129.13" arrivalSpeed="18.33" duration="268.70" routeLength="10810.26" waitingTime="0.59" waitingCount="0" stopTime="0.00" timeLoss="114.23" rerouteNo="1" devices="tripinfo_vehicle_109 routing_vehicle_109" vType="passenger" speedFactor="1.63" vaporized=""/>
    <tripinfo id="vehicle_326" depart="42.10" departLane="" departPos="0.00" departSpeed="17.45" departDelay="9.50" arrival="281.60" arrivalLane="" arrivalPos="125.31" arrivalSpeed="70.01" duration="239.50" routeLength="4543.48" waitingTime="0.00" waitingCount="0" stopTime="0.00" timeLoss="174.54" rerouteNo="1" devices="tripinfo_vehicle_326 routing_vehicle_326" vType="passenger" speedFactor="1.65" vaporized=""/>
    <tripinfo id="vehicle_307" depart="47.00" departLane="" departPos="0.00" departSpeed="56.01" departDelay="16.30" arrival="289.30" arrivalLane="" arrivalPos="125.17" arrivalSpeed="56.00" duration="242.30" routeLength="4705.82" waitingTime="0.00" waitingCount="0" stopTime="0.00" timeLoss="158.25" rerouteNo="1" devices="tripinfo_vehicle_307 routing_vehicle_307" vType="lorry" speedFactor="0.88" vaporized=""/>
    <tripinfo id="vehicle_476" depart="59.30" departLane="" departPos="0.00" departSpeed="25.09" departDelay="11.70" arrival="292.00" arrivalLane="" arrivalPos="125.17" arrivalSpeed="66.16" duration="232.70" routeLength="4705.82" waitingTime="0.00" waitingCount="0" stopTime="0.00" timeLoss="161.50" rerouteNo="1" devices="tripinfo_vehicle_476 routing_vehicle_476" vType="passenger" speedFactor="0.95" vaporized=""/>
    <tripinfo id="vehicle_94" depart="13.50" departLane="" departPos="0.00" departSpeed="48.40" departDelay="4.10" arrival="295.70" arrivalLane="" arrivalPos="125.22" arrivalSpeed="69.99" duration="282.20" routeLength="12922.73" waitingTime="0.00" waitingCount="0" stopTime="0.00" timeLoss="97.46" rerouteNo="1" devices="tripinfo_vehicle_94 routing_vehicle_94" vType="passenger" speedFactor="1.36" vaporized=""/>
    <tripinfo id="vehicle_253" depart="41.50" departLane="" departPos="0.00" departSpeed="19.92" departDelay="16.20" arrival="297.60" arrivalLane="" arrivalPos="125.17" arrivalSpeed="19.92" duration="256.10" routeLength="4705.82" waitingTime="0.09" waitingCount="0" stopTime="0.00" timeLoss="19.82" rerouteNo="1" devices="tripinfo_vehicle_253 routing_vehicle_253" vType="lorry" speedFactor="0.28" vaporized=""/>
    <tripinfo id="vehicle_469" depart="77.00" departLane="" departPos="0.00" departSpeed="56.01" departDelay="30.10" arrival="300.50" arrivalLane="" arrivalPos="125.17" arrivalSpeed="56.00" duration="223.50" routeLength="4705.82" waitingTime="0.00" waitingCount="0" stopTime="0.00" timeLoss="139.38" rerouteNo="1" devices="tripinfo_vehicle_469 routing_vehicle_469" vType="lorry" speedFactor="1.87" vaporized=""/>
    <tripinfo id="vehicle_949" depart="106.50" departLane="" departPos="0.00" departSpeed="36.00" departDelay="11.60" arrival="303.50" arrivalLane="" arrivalPos="54.13" arrivalSpeed="48.12" duration="197.00" routeLength="4684.94" waitingTime="0.00" waitingCount="0" stopTime="0.00" timeLoss="100.01" rerouteNo="1" devices="tripinfo_vehicle_949 routing_vehicle_949" vType="passenger" speedFactor="0.69" vaporized=""/>
    <tripinfo id="vehicle_137" depart="13.70" departLane="" departPos="0.00" departSpeed="24.57" departDelay="0.00" arrival="303.80" arrivalLane="" arrivalPos="117.37" arrivalSpeed="24.57" duration="290.10" routeLength="4695.02" waitingTime="0.00" waitingCount="0" stopTime="0.00" timeLoss="80.17" rerouteNo="1" devices="tripinfo_vehicle_137 routing_vehicle_137" vType="motorcycle" speedFactor="0.35" vaporized=""/>
    <tripinfo id="vehicle_735" depart="74.50" departLane="" departPos="0.00" departSpeed="56.00" departDelay="1.00" arrival="309.30" arrivalLane="" arrivalPos="117.37" arrivalSpeed="56.00" duration="234.80" routeLength="4695.02" waitingTime="0.00" waitingCount="0" stopTime="0.00" timeLoss="146.11" rerouteNo="1" devices="tripinfo_vehicle_735 routing_vehicle_735" vType="lorry" speedFactor="1.25" vaporized=""/>
    <tripinfo id="vehicle_292" depart="29.20" departLane="" departPos="0.00" departSpeed="49.23" departDelay="0.00" arrival="311.40" arrivalLane="" arrivalPos="124.90" arrivalSpeed="49.21" duration="282.20" routeLength="9581.91" waitingTime="0.00" waitingCount="0" stopTime="0.00" timeLoss="86.84" rerouteNo="1" devices="tripinfo_vehicle_292 routing_vehicle_292" vType="passenger" speedFactor="0.70" vaporized=""/>
    <tripinfo id="vehicle_848" depart="86.80" departLane="" departPos="0.00" departSpeed="14.24" departDelay="2.00" arrival="312.70" arrivalLane="" arrivalPos="117.37" arrivalSpeed="63.96" duration="225.90" routeLength="4695.02" waitingTime="0.43" waitingCount="0" stopTime="0.00" timeLoss="142.96" rerouteNo="1" devices="tripinfo_vehicle_848 routing_vehicle_848" vType="passenger" speedFactor="0.91" vaporized=""/>
    <tripinfo id="vehicle_362" depart="36.20" departLane="" departPos="0.00" departSpeed="22.83" departDelay="0.00" arrival="313.10" arrivalLane="" arrivalPos="124.90" arrivalSpeed="45.35" duration="276.90" routeLength="9581.91" waitingTime="0.30" waitingCount="0" stopTime="0.00" timeLoss="64.82" rerouteNo="1" devices="tripinfo_vehicle_362 routing_vehicle_362" vType="passenger" speedFactor="0.65" vaporized=""/>
    <tripinfo id="vehicle_418" depart="41.90" departLane="" departPos="0.00" departSpeed="41.59" departDelay="0.10" arrival="314.30" arrivalLane="" arrivalPos="124.90" arrivalSpeed="45.34" duration="272.40" routeLength="9581.91" waitingTime="1.70" waitingCount="0" stopTime="0.00" timeLoss="135.46" rerouteNo="1" devices="tripinfo_vehicle_418 routing_vehicle_418" vType="passenger" speedFactor="1.66" vaporized=""/>
    <tripinfo id="vehicle_462" depart="55.40" departLane="" departPos="0.00" departSpeed="45.16" departDelay="9.20" arrival="336.60" arrivalLane="" arrivalPos="125.31" arrivalSpeed="70.01" duration="281.20" routeLength="4543.48" waitingTime="0.00" waitingCount="0" stopTime="0.00" timeLoss="216.23" rerouteNo="1" devices="tripinfo_vehicle_462 routing_vehicle_462" vType="passenger" speedFactor="1.75" vaporized=""/>
    <tripinfo id="vehicle_685" depart="74.30" departLane="" departPos="0.00" departSpeed="35.05" departDelay="5.80" arrival="342.60" arrivalLane="" arrivalPos="125.31" arrivalSpeed="70.01" duration="268.30" routeLength="4543.48" waitingTime="0.00" waitingCount="0" stopTime="0.00" timeLoss="203.33" rerouteNo="1" devices="tripinfo_vehicle_685 routing_vehicle_685" vType="passenger" speedFactor="1.54" vaporized=""/>
    <tripinfo id="vehicle_671" depart="73.10" departLane="" departPos="0.00" departSpeed="35.48" departDelay="6.00" arrival="348.70" arrivalLane="" arrivalPos="125.31" arrivalSpeed="35.47" duration="275.60" routeLength="4543.48" waitingTime="0.00" waitingCount="0" stopTime="0.00" timeLoss="146.53" rerouteNo="1" devices="tripinfo_vehicle_671 routing_vehicle_671" vType="passenger" speedFactor="0.51" vaporized=""/>
    <tripinfo id="vehicle_200" depart="20.00" departLane="" departPos="0.00" departSpeed="52.40" departDelay="0.00" arrival="349.50" arrivalLane="" arrivalPos="124.84" arrivalSpeed="52.39" duration="329.50" routeLength="7388.68" waitingTime="0.00" waitingCount="0" stopTime="0.00" timeLoss="179.66" rerouteNo="1" devices="tripinfo_vehicle_200 routing_vehicle_200" vType="passenger" speedFactor="0.75" vaporized=""/>
    <tripinfo id="vehicle_757" depart="83.40" departLane="" departPos="0.00" departSpeed="43.97" departDelay="7.70" arrival="354.80" arrivalLane="" arrivalPos="125.31" arrivalSpeed="60.10" duration="271.40" routeLength="4543.48" waitingTime="0.23" waitingCount="0" stopTime="0.00" timeLoss="193.94" rerouteNo="1" devices="tripinfo_vehicle_757 routing_vehicle_757" vType="passenger" speedFactor="0.86" vaporized=""/>
    <tripinfo id="vehicle_1" depart="0.10" departLane="" departPos="0.00" departSpeed="20.08" departDelay="0.00" arrival="358.10" arrivalLane="" arrivalPos="49.96" arrivalSpeed="20.08" duration="358.00" routeLength="7182.00" waitingTime="0.21" waitingCount="0" stopTime="0.00" timeLoss="0.21" rerouteNo="1" devices="tripinfo_vehicle_1 routing_vehicle_1" vType="passenger" speedFactor="0.29" vaporized=""/>