<?xml version="1.0" encoding="UTF-8"?>

<!-- generated on 2022-04-14 11:10:31 by Eclipse SUMO GUI Version 1.10.0
<configuration xmlns:xsi="http://www.w3.org/2001/XMLSchema-instance" xsi:noNamespaceSchemaLocation="http://sumo.dlr.de/xsd/sumoConfiguration.xsd">

    <input>
        <net-file value="./Final.net.xml"/>
        <route-files value="./less.rou.xml"/>
    </input>

    <output>
        <write-license value="true"/>
        <tripinfo-output value="./tripinfos.xml"/>
    </output>

    <time>
        <begin value="0"/>
        <end value="100000"/>
        <step-length value="0.1"/>
    </time>

    <processing>
        <default.speeddev value="100"/>
        <pedestrian.model value="nonInteracting"/>
    </processing>

    <report>
        <duration-log.disable value="true"/>
        <no-step-log value="true"/>
    </report>

    <traci_server>
        <remote-port value="8813"/>
    </traci_server>

    <mesoscopic>
        <mesosim value="true"/>
    </mesoscopic>

    <gui_only>
        <start value="true"/>
        <tracker-interval value="0.1"/>
    </gui_only>

</configuration>
-->

<tripinfos xmlns:xsi="http://www.w3.org/2001/XMLSchema-instance" xsi:noNamespaceSchemaLocation="http://sumo.dlr.de/xsd/tripinfo_file.xsd">
    <tripinfo id="vehicle_9" depart="0.90" departLane="" departPos="0.00" departSpeed="70.00" departDelay="0.00" arrival="69.40" arrivalLane="" arrivalPos="123.26" arrivalSpeed="69.99" duration="68.50" routeLength="4761.60" waitingTime="0.00" waitingCount="0" stopTime="0.00" timeLoss="0.44" rerouteNo="1" devices="tripinfo_vehicle_9 routing_vehicle_9" vType="passenger" speedFactor="1.24" vaporized=""/>
    <tripinfo id="vehicle_48" depart="4.80" departLane="" departPos="0.00" departSpeed="56.81" departDelay="0.00" arrival="86.00" arrivalLane="" arrivalPos="49.96" arrivalSpeed="56.84" duration="81.20" routeLength="4537.82" waitingTime="0.00" waitingCount="0" stopTime="0.00" timeLoss="1.29" rerouteNo="1" devices="tripinfo_vehicle_48 routing_vehicle_48" vType="passenger" speedFactor="0.81" vaporized=""/>
    <tripinfo id="vehicle_296" depart="29.60" departLane="" departPos="0.00" departSpeed="57.40" departDelay="0.00" arrival="121.50" arrivalLane="" arrivalPos="124.50" arrivalSpeed="69.98" duration="91.90" routeLength="2781.45" waitingTime="0.21" waitingCount="0" stopTime="0.00" timeLoss="52.07" rerouteNo="1" devices="tripinfo_vehicle_296 routing_vehicle_296" vType="passenger" speedFactor="1.96" vaporized=""/>
    <tripinfo id="vehicle_108" depart="10.80" departLane="" departPos="0.00" departSpeed="67.86" departDelay="0.00" arrival="144.60" arrivalLane="" arrivalPos="49.96" arrivalSpeed="67.88" duration="133.80" routeLength="4537.82" waitingTime="0.00" waitingCount="0" stopTime="0.00" timeLoss="66.87" rerouteNo="1" devices="tripinfo_vehicle_108 routing_vehicle_108" vType="passenger" speedFactor="0.97" vaporized=""/>
    <tripinfo id="vehicle_130" depart="17.80" departLane="" departPos="0.00" departSpeed="35.30" departDelay="4.80" arrival="157.10" arrivalLane="" arrivalPos="125.31" arrivalSpeed="44.93" duration="139.30" routeLength="4523.31" waitingTime="0.00" waitingCount="0" stopTime="0.00" timeLoss="38.55" rerouteNo="1" devices="tripinfo_vehicle_130 routing_vehicle_130" vType="passenger" speedFactor="0.64" vaporized=""/>
    <tripinfo id="vehicle_224" depart="28.20" departLane="" departPos="0.00" departSpeed="36.27" departDelay="5.80" arrival="158.30" arrivalLane="" arrivalPos="125.31" arrivalSpeed="44.93" duration="130.10" routeLength="4523.31" waitingTime="0.00" waitingCount="0" stopTime="0.00" timeLoss="65.47" rerouteNo="1" devices="tripinfo_vehicle_224 routing_vehicle_224" vType="passenger" speedFactor="1.50" vaporized=""/>
    <tripinfo id="vehicle_435" depart="45.90" departLane="" departPos="0.00" departSpeed="70.01" departDelay="2.40" arrival="159.50" arrivalLane="" arrivalPos="124.50" arrivalSpeed="69.98" duration="113.60" routeLength="2781.45" waitingTime="0.00" waitingCount="0" stopTime="0.00" timeLoss="73.76" rerouteNo="1" devices="tripinfo_vehicle_435 routing_vehicle_435" vType="passenger" speedFactor="1.13" vaporized=""/>
    <tripinfo id="vehicle_235" depart="26.70" departLane="" departPos="0.00" departSpeed="56.74" departDelay="3.20" arrival="161.20" arrivalLane="" arrivalPos="54.13" arrivalSpeed="56.74" duration="134.50" routeLength="4650.06" waitingTime="0.27" waitingCount="0" stopTime="0.00" timeLoss="52.49" rerouteNo="1" devices="tripinfo_vehicle_235 routing_vehicle_235" vType="passenger" speedFactor="0.81" vaporized=""/>
    <tripinfo id="vehicle_301" depart="30.10" departLane="" departPos="0.00" departSpeed="69.98" departDelay="0.00" arrival="162.60" arrivalLane="" arrivalPos="124.84" arrivalSpeed="70.02" duration="132.50" routeLength="3214.93" waitingTime="0.00" waitingCount="0" stopTime="0.00" timeLoss="86.52" rerouteNo="1" devices="tripinfo_vehicle_301 routing_vehicle_301" vType="passenger" speedFactor="1.95" vaporized=""/>
    <tripinfo id="vehicle_292" depart="35.30" departLane="" departPos="0.00" departSpeed="43.79" departDelay="6.10" arrival="162.80" arrivalLane="" arrivalPos="54.13" arrivalSpeed="49.21" duration="127.50" routeLength="4650.06" waitingTime="0.31" waitingCount="0" stopTime="0.00" timeLoss="33.00" rerouteNo="1" devices="tripinfo_vehicle_292 routing_vehicle_292" vType="passenger" speedFactor="0.70" vaporized=""/>
    <tripinfo id="vehicle_83" depart="12.20" departLane="" departPos="0.00" departSpeed="58.35" departDelay="3.90" arrival="164.80" arrivalLane="" arrivalPos="123.26" arrivalSpeed="69.99" duration="152.60" routeLength="4761.60" waitingTime="0.00" waitingCount="0" stopTime="0.00" timeLoss="84.54" rerouteNo="1" devices="tripinfo_vehicle_83 routing_vehicle_83" vType="passenger" speedFactor="1.25" vaporized=""/>
    <tripinfo id="vehicle_464" depart="49.40" departLane="" departPos="0.00" departSpeed="69.98" departDelay="3.00" arrival="167.50" arrivalLane="" arrivalPos="124.84" arrivalSpeed="70.02" duration="118.10" routeLength="3214.93" waitingTime="0.00" waitingCount="0" stopTime="0.00" timeLoss="72.12" rerouteNo="1" devices="tripinfo_vehicle_464 routing_vehicle_464" vType="passenger" speedFactor="1.60" vaporized=""/>
    <tripinfo id="vehicle_32" depart="3.20" departLane="" departPos="0.00" departSpeed="45.31" departDelay="0.00" arrival="171.90" arrivalLane="" arrivalPos="61.88" arrivalSpeed="70.00" duration="168.70" routeLength="11755.41" waitingTime="0.00" waitingCount="0" stopTime="0.00" timeLoss="0.74" rerouteNo="1" devices="tripinfo_vehicle_32 routing_vehicle_32" vType="passenger" speedFactor="1.74" vaporized=""/>
    <tripinfo id="vehicle_485" depart="52.10" departLane="" departPos="0.00" departSpeed="55.35" departDelay="3.60" arrival="172.30" arrivalLane="" arrivalPos="124.84" arrivalSpeed="55.34" duration="120.20" routeLength="3214.93" waitingTime="0.00" waitingCount="0" stopTime="0.00" timeLoss="62.09" rerouteNo="1" devices="tripinfo_vehicle_485 routing_vehicle_485" vType="passenger" speedFactor="0.79" vaporized=""/>
    <tripinfo id="vehicle_266" depart="33.00" departLane="" departPos="0.00" departSpeed="52.72" departDelay="6.40" arrival="182.70" arrivalLane="" arrivalPos="49.96" arrivalSpeed="52.70" duration="149.70" routeLength="4537.82" waitingTime="0.00" waitingCount="0" stopTime="0.00" timeLoss="63.55" rerouteNo="1" devices="tripinfo_vehicle_266 routing_vehicle_266" vType="passenger" speedFactor="0.75" vaporized=""/>
    <tripinfo id="vehicle_286" depart="35.90" departLane="" departPos="0.00" departSpeed="70.03" departDelay="7.30" arrival="183.70" arrivalLane="" arrivalPos="49.96" arrivalSpeed="69.97" duration="147.80" routeLength="4537.82" waitingTime="0.62" waitingCount="0" stopTime="0.00" timeLoss="82.90" rerouteNo="1" devices="tripinfo_vehicle_286 routing_vehicle_286" vType="passenger" speedFactor="1.69" vaporized=""/>
    <tripinfo id="vehicle_89" depart="8.90" departLane="" departPos="0.00" departSpeed="6.33" departDelay="0.00" arrival="183.80" arrivalLane="" arrivalPos="125.17" arrivalSpeed="39.60" duration="174.90" routeLength="4694.38" waitingTime="0.03" waitingCount="0" stopTime="0.00" timeLoss="46.39" rerouteNo="1" devices="tripinfo_vehicle_89 routing_vehicle_89" vType="lorry" speedFactor="0.57" vaporized=""/>
    <tripinfo id="vehicle_179" depart="17.90" departLane="" departPos="0.00" departSpeed="70.01" departDelay="0.00" arrival="185.90" arrivalLane="" arrivalPos="61.88" arrivalSpeed="70.00" duration="168.00" routeLength="11755.41" waitingTime="0.00" waitingCount="0" stopTime="0.00" timeLoss="0.00" rerouteNo="1" devices="tripinfo_vehicle_179 routing_vehicle_179" vType="passenger" speedFactor="1.49" vaporized=""/>
    <tripinfo id="vehicle_234" depart="26.10" departLane="" departPos="0.00" departSpeed="3.26" departDelay="2.70" arrival="186.50" arrivalLane="" arrivalPos="125.17" arrivalSpeed="56.43" duration="160.40" routeLength="4694.38" waitingTime="0.00" waitingCount="0" stopTime="0.00" timeLoss="70.18" rerouteNo="1" devices="tripinfo_vehicle_234 routing_vehicle_234" vType="passenger" speedFactor="0.81" vaporized=""/>
    <tripinfo id="vehicle_762" depart="76.20" departLane="" departPos="0.00" departSpeed="69.98" departDelay="0.00" arrival="188.30" arrivalLane="" arrivalPos="124.84" arrivalSpeed="70.02" duration="112.10" routeLength="3214.93" waitingTime="0.00" waitingCount="0" stopTime="0.00" timeLoss="66.15" rerouteNo="1" devices="tripinfo_vehicle_762 routing_vehicle_762" vType="passenger" speedFactor="1.54" vaporized=""/>
    <tripinfo id="vehicle_166" depart="16.90" departLane="" departPos="0.00" departSpeed="55.99" departDelay="0.30" arrival="189.00" arrivalLane="" arrivalPos="106.39" arrivalSpeed="55.99" duration="172.10" routeLength="8097.99" waitingTime="0.00" waitingCount="0" stopTime="0.00" timeLoss="27.48" rerouteNo="1" devices="tripinfo_vehicle_166 routing_vehicle_166" vType="lorry" speedFactor="0.84" vaporized=""/>
    <tripinfo id="vehicle_302" depart="30.20" departLane="" departPos="0.00" departSpeed="65.58" departDelay="0.00" arrival="190.40" arrivalLane="" arrivalPos="106.39" arrivalSpeed="65.59" duration="160.20" routeLength="8097.99" waitingTime="0.00" waitingCount="0" stopTime="0.00" timeLoss="36.57" rerouteNo="1" devices="tripinfo_vehicle_302 routing_vehicle_302" vType="passenger" speedFactor="0.94" vaporized=""/>
    <tripinfo id="vehicle_670" depart="69.90" departLane="" departPos="0.00" departSpeed="28.14" departDelay="2.90" arrival="194.10" arrivalLane="" arrivalPos="124.84" arrivalSpeed="28.14" duration="124.20" routeLength="3214.93" waitingTime="0.00" waitingCount="0" stopTime="0.00" timeLoss="9.95" rerouteNo="1" devices="tripinfo_vehicle_670 routing_vehicle_670" vType="passenger" speedFactor="0.40" vaporized=""/>
    <tripinfo id="vehicle_360" depart="44.50" departLane="" departPos="0.00" departSpeed="38.23" departDelay="8.50" arrival="194.20" arrivalLane="" arrivalPos="117.05" arrivalSpeed="70.01" duration="149.70" routeLength="2747.67" waitingTime="0.31" waitingCount="0" stopTime="0.00" timeLoss="110.39" rerouteNo="1" devices="tripinfo_vehicle_360 routing_vehicle_360" vType="passenger" speedFactor="1.19" vaporized=""/>
    <tripinfo id="vehicle_599" depart="66.60" departLane="" departPos="0.00" departSpeed="34.84" departDelay="6.70" arrival="200.20" arrivalLane="" arrivalPos="117.05" arrivalSpeed="70.01" duration="133.60" routeLength="2747.67" waitingTime="0.38" waitingCount="0" stopTime="0.00" timeLoss="94.33" rerouteNo="1" devices="tripinfo_vehicle_599 routing_vehicle_599" vType="passenger" speedFactor="1.69" vaporized=""/>
    <tripinfo id="vehicle_718" depart="71.80" departLane="" departPos="0.00" departSpeed="67.03" departDelay="0.00" arrival="202.10" arrivalLane="" arrivalPos="117.05" arrivalSpeed="70.01" duration="130.30" routeLength="2747.67" waitingTime="0.00" waitingCount="0" stopTime="0.00" timeLoss="90.96" rerouteNo="1" devices="tripinfo_vehicle_718 routing_vehicle_718" vType="passenger" speedFactor="1.72" vaporized=""/>
    <tripinfo id="vehicle_765" depart="82.10" departLane="" departPos="0.00" departSpeed="38.85" departDelay="5.60" arrival="206.40" arrivalLane="" arrivalPos="117.05" arrivalSpeed="70.01" duration="124.30" routeLength="2747.67" waitingTime="0.00" waitingCount="0" stopTime="0.00" timeLoss="84.98" rerouteNo="1" devices="tripinfo_vehicle_765 routing_vehicle_765" vType="passenger" speedFactor="1.01" vaporized=""/>
    <tripinfo id="vehicle_864" depart="92.20" departLane="" departPos="0.00" departSpeed="41.80" departDelay="5.80" arrival="214.30" arrivalLane="" arrivalPos="124.84" arrivalSpeed="41.79" duration="122.10" routeLength="3214.93" waitingTime="0.27" waitingCount="0" stopTime="0.00" timeLoss="45.11" rerouteNo="1" devices="tripinfo_vehicle_864 routing_vehicle_864" vType="passenger" speedFactor="0.60" vaporized=""/>
    <tripinfo id="vehicle_879" depart="98.70" departLane="" departPos="0.00" departSpeed="56.01" departDelay="10.80" arrival="215.00" arrivalLane="" arrivalPos="124.50" arrivalSpeed="56.01" duration="116.30" routeLength="2781.45" waitingTime="0.00" waitingCount="0" stopTime="0.00" timeLoss="66.54" rerouteNo="1" devices="tripinfo_vehicle_879 routing_vehicle_879" vType="lorry" speedFactor="1.51" vaporized=""/>
    <tripinfo id="vehicle_895" depart="97.90" departLane="" departPos="0.00" departSpeed="67.82" departDelay="8.40" arrival="215.50" arrivalLane="" arrivalPos="124.84" arrivalSpeed="41.79" duration="117.60" routeLength="3214.93" waitingTime="0.29" waitingCount="0" stopTime="0.00" timeLoss="71.62" rerouteNo="1" devices="tripinfo_vehicle_895 routing_vehicle_895" vType="passenger" speedFactor="1.46" vaporized=""/>
    <tripinfo id="vehicle_16" depart="1.60" departLane="" departPos="0.00" departSpeed="56.01" departDelay="0.00" arrival="215.80" arrivalLane="" arrivalPos="125.57" arrivalSpeed="56.01" duration="214.20" routeLength="11987.98" waitingTime="0.00" waitingCount="0" stopTime="0.00" timeLoss="0.00" rerouteNo="1" devices="tripinfo_vehicle_16 routing_vehicle_16" vType="lorry" speedFactor="1.17" vaporized=""/>
    <tripinfo id="vehicle_18" depart="3.50" departLane="" departPos="0.00" departSpeed="70.01" departDelay="1.70" arrival="217.00" arrivalLane="" arrivalPos="125.57" arrivalSpeed="55.98" duration="213.50" routeLength="11987.98" waitingTime="1.30" waitingCount="0" stopTime="0.00" timeLoss="42.19" rerouteNo="1" devices="tripinfo_vehicle_18 routing_vehicle_18" vType="passenger" speedFactor="1.59" vaporized=""/>
    <tripinfo id="vehicle_50" depart="5.50" departLane="" departPos="0.00" departSpeed="41.75" departDelay="0.50" arrival="232.80" arrivalLane="" arrivalPos="125.22" arrivalSpeed="69.99" duration="227.30" routeLength="12903.39" waitingTime="0.00" waitingCount="0" stopTime="0.00" timeLoss="42.91" rerouteNo="1" devices="tripinfo_vehicle_50 routing_vehicle_50" vType="passenger" speedFactor="1.01" vaporized=""/>
    <tripinfo id="vehicle_86" depart="8.60" departLane="" departPos="0.00" departSpeed="70.01" departDelay="0.00" arrival="234.00" arrivalLane="" arrivalPos="125.22" arrivalSpeed="69.96" duration="225.40" routeLength="12903.39" waitingTime="0.18" waitingCount="0" stopTime="0.00" timeLoss="41.05" rerouteNo="1" devices="tripinfo_vehicle_86 routing_vehicle_86" vType="passenger" speedFactor="1.88" vaporized=""/>
    <tripinfo id="vehicle_368" depart="36.80" departLane="" departPos="0.00" departSpeed="70.01" departDelay="0.00" arrival="237.40" arrivalLane="" arrivalPos="61.88" arrivalSpeed="70.00" duration="200.60" routeLength="11755.41" waitingTime="0.00" waitingCount="0" stopTime="0.00" timeLoss="32.59" rerouteNo="1" devices="tripinfo_vehicle_368 routing_vehicle_368" vType="passenger" speedFactor="1.38" vaporized=""/>
    <tripinfo id="vehicle_140" depart="14.00" departLane="" departPos="0.00" departSpeed="14.06" departDelay="0.00" arrival="238.30" arrivalLane="" arrivalPos="129.13" arrivalSpeed="14.06" duration="224.30" routeLength="3150.13" waitingTime="0.30" waitingCount="0" stopTime="0.00" timeLoss="0.30" rerouteNo="1" devices="tripinfo_vehicle_140 routing_vehicle_140" vType="passenger" speedFactor="0.20" vaporized=""/>
    <tripinfo id="vehicle_57" depart="9.20" departLane="" departPos="0.00" departSpeed="42.67" departDelay="3.50" arrival="252.40" arrivalLane="" arrivalPos="125.57" arrivalSpeed="69.99" duration="243.20" routeLength="11987.98" waitingTime="0.00" waitingCount="0" stopTime="0.00" timeLoss="71.90" rerouteNo="1" devices="tripinfo_vehicle_57 routing_vehicle_57" vType="passenger" speedFactor="1.35" vaporized=""/>
    <tripinfo id="vehicle_857" depart="93.70" departLane="" departPos="0.00" departSpeed="20.73" departDelay="8.00" arrival="260.20" arrivalLane="" arrivalPos="129.13" arrivalSpeed="56.00" duration="166.50" routeLength="3150.13" waitingTime="0.37" waitingCount="0" stopTime="0.00" timeLoss="110.17" rerouteNo="1" devices="tripinfo_vehicle_857 routing_vehicle_857" vType="lorry" speedFactor="1.36" vaporized=""/>
    <tripinfo id="vehicle_477" depart="48.10" departLane="" departPos="0.00" departSpeed="10.30" departDelay="0.40" arrival="274.90" arrivalLane="" arrivalPos="49.96" arrivalSpeed="56.01" duration="226.80" routeLength="4537.82" waitingTime="0.31" waitingCount="0" stopTime="0.00" timeLoss="145.76" rerouteNo="1" devices="tripinfo_vehicle_477 routing_vehicle_477" vType="lorry" speedFactor="1.88" vaporized=""/>
    <tripinfo id="vehicle_952" depart="101.50" departLane="" departPos="0.00" departSpeed="30.14" departDelay="6.30" arrival="280.50" arrivalLane="" arrivalPos="129.13" arrivalSpeed="69.99" duration="179.00" routeLength="3150.13" waitingTime="0.16" waitingCount="0" stopTime="0.00" timeLoss="134.00" rerouteNo="1" devices="tripinfo_vehicle_952 routing_vehicle_952" vType="passenger" speedFactor="1.99" vaporized=""/>
    <tripinfo id="vehicle_4" depart="2.60" departLane="" departPos="0.00" departSpeed="55.99" departDelay="2.20" arrival="283.20" arrivalLane="" arrivalPos="129.13" arrivalSpeed="56.00" duration="280.60" routeLength="10778.00" waitingTime="0.12" waitingCount="0" stopTime="0.00" timeLoss="88.07" rerouteNo="1" devices="tripinfo_vehicle_4 routing_vehicle_4" vType="lorry" speedFactor="1.31" vaporized=""/>
    <tripinfo id="vehicle_306" depart="33.80" departLane="" departPos="0.00" departSpeed="55.99" departDelay="3.20" arrival="287.00" arrivalLane="" arrivalPos="125.31" arrivalSpeed="55.99" duration="253.20" routeLength="4523.31" waitingTime="0.00" waitingCount="0" stopTime="0.00" timeLoss="172.37" rerouteNo="1" devices="tripinfo_vehicle_306 routing_vehicle_306" vType="lorry" speedFactor="1.65" vaporized=""/>
    <tripinfo id="vehicle_372" depart="37.20" departLane="" departPos="0.00" departSpeed="69.98" departDelay="0.00" arrival="287.60" arrivalLane="" arrivalPos="129.13" arrivalSpeed="69.99" duration="250.40" routeLength="10778.00" waitingTime="0.05" waitingCount="0" stopTime="0.00" timeLoss="96.38" rerouteNo="1" devices="tripinfo_vehicle_372 routing_vehicle_372" vType="passenger" speedFactor="1.85" vaporized=""/>
    <tripinfo id="vehicle_955" depart="103.50" departLane="" departPos="0.00" departSpeed="31.05" departDelay="8.00" arrival="288.90" arrivalLane="" arrivalPos="129.13" arrivalSpeed="69.95" duration="185.40" routeLength="3150.13" waitingTime="2.49" waitingCount="0" stopTime="0.00" timeLoss="140.31" rerouteNo="1" devices="tripinfo_vehicle_955 routing_vehicle_955" vType="passenger" speedFactor="1.50" vaporized=""/>
    <tripinfo id="vehicle_441" depart="44.10" departLane="" departPos="0.00" departSpeed="69.98" departDelay="0.00" arrival="290.30" arrivalLane="" arrivalPos="129.13" arrivalSpeed="69.99" duration="246.20" routeLength="10778.00" waitingTime="0.28" waitingCount="0" stopTime="0.00" timeLoss="92.13" rerouteNo="1" devices="tripinfo_vehicle_441 routing_vehicle_441" vType="passenger" speedFactor="1.35" vaporized=""/>
    <tripinfo id="vehicle_11" depart="1.10" departLane="" departPos="0.00" departSpeed="15.63" departDelay="0.00" arrival="296.90" arrivalLane="" arrivalPos="117.37" arrivalSpeed="15.63" duration="295.80" routeLength="4623.19" waitingTime="0.00" waitingCount="0" stopTime="0.00" timeLoss="0.00" rerouteNo="1" devices="tripinfo_vehicle_11 routing_vehicle_11" vType="lorry" speedFactor="0.22" vaporized=""/>
    <tripinfo id="vehicle_26" depart="2.60" departLane="" departPos="0.00" departSpeed="13.03" departDelay="0.00" arrival="298.10" arrivalLane="" arrivalPos="117.37" arrivalSpeed="16.99" duration="295.50" routeLength="4623.19" waitingTime="0.34" waitingCount="0" stopTime="0.00" timeLoss="50.94" rerouteNo="1" devices="tripinfo_vehicle_26 routing_vehicle_26" vType="passenger" speedFactor="0.27" vaporized=""/>
    <tripinfo id="vehicle_545" depart="57.20" departLane="" departPos="0.00" departSpeed="41.59" departDelay="2.70" arrival="298.10" arrivalLane="" arrivalPos="129.13" arrivalSpeed="69.99" duration="240.90" routeLength="10778.00" waitingTime="0.38" waitingCount="0" stopTime="0.00" timeLoss="86.83" rerouteNo="1" devices="tripinfo_vehicle_545 routing_vehicle_545" vType="passenger" speedFactor="1.31" vaporized=""/>
    <tripinfo id="vehicle_191" depart="19.20" departLane="" departPos="0.00" departSpeed="67.17" departDelay="0.10" arrival="299.40" arrivalLane="" arrivalPos="117.37" arrivalSpeed="16.99" duration="280.20" routeLength="4623.19" waitingTime="0.01" waitingCount="0" stopTime="0.00" timeLoss="214.10" rerouteNo="1" devices="tripinfo_vehicle_191 routing_vehicle_191" vType="passenger" speedFactor="1.18" vaporized=""/>
    <tripinfo id="vehicle_212" depart="21.90" departLane="" departPos="0.00" departSpeed="26.74" departDelay="0.70" arrival="300.60" arrivalLane="" arrivalPos="117.37" arrivalSpeed="16.99" duration="278.70" routeLength="4623.19" waitingTime="0.00" waitingCount="0" stopTime="0.00" timeLoss="105.78" rerouteNo="1" devices="tripinfo_vehicle_212 routing_vehicle_212" vType="passenger" speedFactor="0.38" vaporized=""/>
    <tripinfo id="vehicle_543" depart="54.30" departLane="" departPos="0.00" departSpeed="69.99" departDelay="0.00" arrival="301.90" arrivalLane="" arrivalPos="117.37" arrivalSpeed="18.25" duration="247.60" routeLength="4623.19" waitingTime="0.00" waitingCount="0" stopTime="0.00" timeLoss="181.47" rerouteNo="1" devices="tripinfo_vehicle_543 routing_vehicle_543" vType="passenger" speedFactor="1.57" vaporized=""/>
    <tripinfo id="vehicle_708" depart="71.20" departLane="" departPos="0.00" departSpeed="36.06" departDelay="0.40" arrival="303.40" arrivalLane="" arrivalPos="125.31" arrivalSpeed="70.01" duration="232.20" routeLength="4523.31" waitingTime="0.60" waitingCount="0" stopTime="0.00" timeLoss="167.56" rerouteNo="1" devices="tripinfo_vehicle_708 routing_vehicle_708" vType="passenger" speedFactor="1.77" vaporized=""/>
    <tripinfo id="vehicle_770" depart="78.80" departLane="" departPos="0.00" departSpeed="66.66" departDelay="1.80" arrival="305.60" arrivalLane="" arrivalPos="117.37" arrivalSpeed="69.99" duration="226.80" routeLength="4623.19" waitingTime="0.00" waitingCount="0" stopTime="0.00" timeLoss="160.68" rerouteNo="1" devices="tripinfo_vehicle_770 routing_vehicle_770" vType="passenger" speedFactor="1.10" vaporized=""/>
    <tripinfo id="vehicle_15" depart="1.50" departLane="" departPos="0.00" departSpeed="27.11" departDelay="0.00" arrival="308.50" arrivalLane="" arrivalPos="124.89" arrivalSpeed="27.11" duration="307.00" routeLength="8324.02" waitingTime="0.02" waitingCount="0" stopTime="0.00" timeLoss="0.02" rerouteNo="1" devices="tripinfo_vehicle_15 routing_vehicle_15" vType="passenger" speedFactor="0.39" vaporized=""/>
    <tripinfo id="vehicle_379" depart="59.30" departLane="" departPos="0.00" departSpeed="5.95" departDelay="21.40" arrival="310.90" arrivalLane="" arrivalPos="125.17" arrivalSpeed="70.01" duration="251.60" routeLength="4694.38" waitingTime="0.00" waitingCount="0" stopTime="0.00" timeLoss="179.54" rerouteNo="1" devices="tripinfo_vehicle_379 routing_vehicle_379" vType="passenger" speedFactor="1.11" vaporized=""/>
    <tripinfo id="vehicle_590" depart="72.40" departLane="" departPos="0.00" departSpeed="11.73" departDelay="13.40" arrival="312.60" arrivalLane="" arrivalPos="125.17" arrivalSpeed="70.01" duration="240.20" routeLength="4694.38" waitingTime="0.00" waitingCount="0" stopTime="0.00" timeLoss="170.81" rerouteNo="1" devices="tripinfo_vehicle_590 routing_vehicle_590" vType="passenger" speedFactor="1.93" vaporized=""/>
    <tripinfo id="vehicle_52" depart="6.20" departLane="" departPos="0.00" departSpeed="24.53" departDelay="1.00" arrival="313.90" arrivalLane="" arrivalPos="125.57" arrivalSpeed="39.44" duration="307.70" routeLength="11987.98" waitingTime="0.07" waitingCount="0" stopTime="0.00" timeLoss="3.73" rerouteNo="1" devices="tripinfo_vehicle_52 routing_vehicle_52" vType="passenger" speedFactor="0.56" vaporized=""/>
    <tripinfo id="vehicle_692" depart="79.90" departLane="" departPos="0.00" departSpeed="24.81" departDelay="10.70" arrival="314.70" arrivalLane="" arrivalPos="125.31" arrivalSpeed="24.80" duration="234.80" routeLength="4523.31" waitingTime="0.00" waitingCount="0" stopTime="0.00" timeLoss="52.39" rerouteNo="1" devices="tripinfo_vehicle_692 routing_vehicle_692" vType="lorry" speedFactor="0.35" vaporized=""/>
    <tripinfo id="vehicle_192" depart="24.70" departLane="" departPos="0.00" departSpeed="55.98" departDelay="5.50" arrival="322.00" arrivalLane="" arrivalPos="63.24" arrivalSpeed="56.01" duration="297.30" routeLength="7368.66" waitingTime="0.00" waitingCount="0" stopTime="0.00" timeLoss="165.69" rerouteNo="1" devices="tripinfo_vehicle_192 routing_vehicle_192" vType="lorry" speedFactor="1.83" vaporized=""/>
    <tripinfo id="vehicle_255" depart="28.60" departLane="" departPos="0.00" departSpeed="15.76" departDelay="3.10" arrival="323.80" arrivalLane="" arrivalPos="54.13" arrivalSpeed="15.76" duration="295.20" routeLength="4650.06" waitingTime="0.00" waitingCount="0" stopTime="0.00" timeLoss="0.00" rerouteNo="1" devices="tripinfo_vehicle_255 routing_vehicle_255" vType="passenger" speedFactor="0.23" vaporized=""/>
    <tripinfo id="vehicle_463" depart="52.50" departLane="" departPos="0.00" departSpeed="42.11" departDelay="6.20" arrival="325.00" arrivalLane="" arrivalPos="54.13" arrivalSpeed="15.76" duration="272.50" routeLength="4650.06" waitingTime="0.31" waitingCount="0" stopTime="0.00" timeLoss="206.05" rerouteNo="1" devices="tripinfo_vehicle_463 routing_vehicle_463" vType="passenger" speedFactor="1.55" vaporized=""/>
    <tripinfo id="vehicle_576" depart="59.20" departLane="" departPos="0.00" departSpeed="43.00" departDelay="1.60" arrival="326.20" arrivalLane="" arrivalPos="54.13" arrivalSpeed="15.76" duration="267.00" routeLength="4650.06" waitingTime="0.00" waitingCount="0" stopTime="0.00" timeLoss="200.58" rerouteNo="1" devices="tripinfo_vehicle_576 routing_vehicle_576" vType="passenger" speedFactor="1.41" vaporized=""/>
    <tripinfo id="vehicle_393" depart="45.00" departLane="" departPos="0.00" departSpeed="16.62" departDelay="5.70" arrival="328.20" arrivalLane="" arrivalPos="54.13" arrivalSpeed="16.62" duration="283.20" routeLength="4650.06" waitingTime="0.00" waitingCount="0" stopTime="0.00" timeLoss="3.34" rerouteNo="1" devices="tripinfo_vehicle_393 routing_vehicle_393" vType="passenger" speedFactor="0.24" vaporized=""/>
    <tripinfo id="vehicle_802" depart="86.40" departLane="" departPos="0.00" departSpeed="69.99" departDelay="6.20" arrival="338.70" arrivalLane="" arrivalPos="54.13" arrivalSpeed="70.03" duration="252.30" routeLength="4650.06" waitingTime="0.00" waitingCount="0" stopTime="0.00" timeLoss="185.85" rerouteNo="1" devices="tripinfo_vehicle_802 routing_vehicle_802" vType="passenger" speedFactor="1.30" vaporized=""/>
    <tripinfo id="vehicle_689" depart="83.70" departLane="" departPos="0.00" departSpeed="39.56" departDelay="14.80" arrival="341.60" arrivalLane="" arrivalPos="54.13" arrivalSpeed="39.57" duration="257.90" routeLength="4650.06" waitingTime="0.70" waitingCount="0" stopTime="0.00" timeLoss="140.32" rerouteNo="1" devices="tripinfo_vehicle_689 routing_vehicle_689" vType="lorry" speedFactor="0.57" vaporized=""/>
    <tripinfo id="vehicle_875" depart="87.50" departLane="" departPos="0.00" departSpeed="21.34" departDelay="0.00" arrival="342.70" arrivalLane="" arrivalPos="49.96" arrivalSpeed="56.01" duration="255.20" routeLength="4537.82" waitingTime="0.24" waitingCount="0" stopTime="0.00" timeLoss="174.12" rerouteNo="1" devices="tripinfo_vehicle_875 routing_vehicle_875" vType="lorry" speedFactor="1.76" vaporized=""/>
    <tripinfo id="vehicle_412" depart="41.20" departLane="" departPos="0.00" departSpeed="18.05" departDelay="0.00" arrival="343.80" arrivalLane="" arrivalPos="123.26" arrivalSpeed="23.51" duration="302.60" routeLength="4761.60" waitingTime="0.00" waitingCount="0" stopTime="0.00" timeLoss="99.96" rerouteNo="1" devices="tripinfo_vehicle_412 routing_vehicle_412" vType="passenger" speedFactor="0.34" vaporized=""/>
    <tripinfo id="vehicle_29" depart="4.80" departLane="" departPos="0.00" departSpeed="58.09" departDelay="1.90" arrival="345.40" arrivalLane="" arrivalPos="54.13" arrivalSpeed="58.08" duration="340.60" routeLength="13484.85" waitingTime="0.00" waitingCount="0" stopTime="0.00" timeLoss="108.35" rerouteNo="1" devices="tripinfo_vehicle_29 routing_vehicle_29" vType="passenger" speedFactor="0.83" vaporized=""/>
    <tripinfo id="vehicle_965" depart="96.50" departLane="" departPos="0.00" departSpeed="48.83" departDelay="0.00" arrival="347.30" arrivalLane="" arrivalPos="49.96" arrivalSpeed="69.97" duration="250.80" routeLength="4537.82" waitingTime="0.00" waitingCount="0" stopTime="0.00" timeLoss="185.90" rerouteNo="1" devices="tripinfo_vehicle_965 routing_vehicle_965" vType="passenger" speedFactor="1.89" vaporized=""/>